Program Version,EnergyPlus, Version 8.3.0-6d97d074ea, YMD=2021.05.06 15:31
1,5,Environment Title[],Latitude[deg],Longitude[deg],Time Zone[],Elevation[m]
2,6,Day of Simulation[],Month[],Day of Month[],DST Indicator[1=yes 0=no],Hour[],StartMinute[],EndMinute[],DayType
3,3,Cumulative Day of Simulation[],Month[],Day of Month[],DST Indicator[1=yes 0=no],DayType  ! When Daily Report Variables Requested
4,2,Cumulative Days of Simulation[],Month[]  ! When Monthly Report Variables Requested
5,1,Cumulative Days of Simulation[] ! When Run Period Report Variables Requested
6,1,Environment,Site Outdoor Air Drybulb Temperature [C] !TimeStep
8,1,Environment,Site Outdoor Air Relative Humidity [%] !TimeStep
10,1,Environment,Site Diffuse Solar Radiation Rate per Area [W/m2] !TimeStep
11,1,Environment,Site Direct Solar Radiation Rate per Area [W/m2] !TimeStep
374,1,EMS,IW North Zone Average Temperature [C] !TimeStep
383,1,EMS,IW Effective Zone Air Temperature Setpoint [C] !TimeStep
396,1,EMS,IW Occp First Come Pred [] !TimeStep
397,1,EMS,IW Occp Last Leave Pred [] !TimeStep
398,1,EMS,IW Occp Mode [] !TimeStep
412,1,EMS,IW Hot Water Supply Temperature Setpoint Action [C] !TimeStep
420,1,EMS,IW Calculated Heating Demand [KW] !TimeStep
425,1,EMS,IW Average PMV [%] !TimeStep
429,1,EMS,Setback Flag Sensor [] !TimeStep
1463,1,TEMPHWLOOP SUPPLY SIDE OUTLET,System Node Temperature [C] !TimeStep
1464,1,TEMPHWLOOP SUPPLY SIDE OUTLET,System Node Mass Flow Rate [kg/s] !TimeStep
1466,1,TEMPHWLOOP DEMAND SIDE INLET,System Node Temperature [C] !TimeStep
1467,1,TEMPHWLOOP DEMAND SIDE INLET,System Node Mass Flow Rate [kg/s] !TimeStep
End of Data Dictionary
1,WHOLEYEAR,  31.17, 121.43,   8.00,   7.00
2,1, 1, 1, 0, 1, 0.00, 5.00,Sunday
6,5.89166666666667
8,81.0833333333333
10,0.0
11,0.0
374,17.7122209313642
383,18.
396,12.
397,16.
398,0.0
412,17.7122209313642
420,13.7680978301875
425,-999.
429,1.
1463,24.3862191023594
1464,4.4390336730227
1466,24.7606968239299
1467,4.4390336730227
2,1, 1, 1, 0, 1, 5.00,10.00,Sunday
6,6.08333333333333
8,80.1666666666667
10,0.0
11,0.0
374,17.6912671744669
383,18.
396,12.
397,16.
398,0.0
412,34.8379949219977
420,12.9892640151494
425,-999.
429,1.
1463,23.8287265000945
1464,4.4390336730227
1466,24.1824177400585
1467,4.4390336730227
2,1, 1, 1, 0, 1,10.00,15.00,Sunday
6,6.275
8,79.25
10,0.0
11,0.0
374,17.671921586893
383,18.
396,12.
397,16.
398,0.0
412,34.8167841310703
420,40.0397436676123
425,-999.
429,1.
1463,34.8379949219977
1464,4.4390336730227
1466,29.4178192881339
1467,4.4390336730227
2,1, 1, 1, 0, 1,15.00,20.00,Sunday
6,6.46666666666667
8,78.3333333333333
10,0.0
11,0.0
374,17.6846878328988
383,18.
396,12.
397,16.
398,0.0
412,34.4744550043458
420,51.9422548545571
425,-999.
429,1.
1463,34.8167841310703
1464,4.4390336730227
1466,33.7330497974833
1467,4.4390336730227
2,1, 1, 1, 0, 1,20.00,25.00,Sunday
6,6.65833333333333
8,77.4166666666667
10,0.0
11,0.0
374,17.7368694029043
383,18.
396,12.
397,16.
398,0.0
412,17.7368694029043
420,28.1210948454344
425,-999.
429,1.
1463,30.471259136878
1464,4.4390336730227
1466,32.4091310693915
1467,4.4390336730227
2,1, 1, 1, 0, 1,25.00,30.00,Sunday
6,6.85
8,76.5
10,0.0
11,0.0
374,17.7923144171654
383,18.
396,12.
397,16.
398,0.0
412,17.7923144171654
420,19.2069598674979
425,-999.
429,1.
1463,30.0057978902639
1464,4.4390336730227
1466,30.6401639090291
1467,4.4390336730227
2,1, 1, 1, 0, 1,30.00,35.00,Sunday
6,7.04166666666667
8,75.5833333333333
10,0.0
11,0.0
374,17.84000716141
383,18.
396,12.
397,16.
398,0.0
412,17.84000716141
420,18.6606076037294
425,-999.
429,1.
1463,29.265521101902
1464,4.4390336730227
1466,29.7628583187494
1467,4.4390336730227
2,1, 1, 1, 0, 1,35.00,40.00,Sunday
6,7.23333333333333
8,74.6666666666667
10,0.0
11,0.0
374,17.8548697873759
383,18.
396,12.
397,16.
398,0.0
412,17.8548697873759
420,17.8660227963749
425,-999.
429,1.
1463,28.4927495803343
1464,4.4390336730227
1466,28.9786300090335
1467,4.4390336730227
2,1, 1, 1, 0, 1,40.00,45.00,Sunday
6,7.425
8,73.75
10,0.0
11,0.0
374,17.8564022611897
383,18.
396,12.
397,16.
398,0.0
412,17.8564022611897
420,16.7202906933339
425,-999.
429,1.
1463,27.772223150297
1464,4.4390336730227
1466,28.2297298749442
1467,4.4390336730227
2,1, 1, 1, 0, 1,45.00,50.00,Sunday
6,7.61666666666667
8,72.8333333333333
10,0.0
11,0.0
374,17.8514843379162
383,18.
396,12.
397,16.
398,0.0
412,17.8514843379162
420,15.6027214829627
425,-999.
429,1.
1463,27.1014390875959
1464,4.4390336730227
1466,27.5284050373335
1467,4.4390336730227
2,1, 1, 1, 0, 1,50.00,55.00,Sunday
6,7.80833333333333
8,71.9166666666667
10,0.0
11,0.0
374,17.8422402675754
383,18.
396,12.
397,16.
398,0.0
412,17.8422402675754
420,14.5369145034803
425,-999.
429,1.
1463,26.4767751177099
1464,4.4390336730227
1466,26.87456961217
1467,4.4390336730227
2,1, 1, 1, 0, 1,55.00,60.00,Sunday
6,8.
8,71.
10,0.0
11,0.0
374,17.8305760624003
383,18.
396,12.
397,16.
398,0.0
412,17.8305760624003
420,13.4985877609139
425,-999.
429,1.
1463,25.8968608319121
1464,4.4390336730227
1466,26.266443911946
1467,4.4390336730227
2,1, 1, 1, 0, 2, 0.00, 5.00,Sunday
6,8.03333333333333
8,71.1666666666667
10,0.0
11,0.0
374,17.8179604180633
383,18.
396,12.
397,16.
398,0.0
412,17.8179604180633
420,12.6509730254908
425,-999.
429,1.
1463,25.3547365991045
1464,4.4390336730227
1466,25.6997736597501
1467,4.4390336730227
2,1, 1, 1, 0, 2, 5.00,10.00,Sunday
6,8.06666666666667
8,71.3333333333333
10,0.0
11,0.0
374,17.8039173511108
383,18.
396,12.
397,16.
398,0.0
412,17.8039173511108
420,11.8123993666429
425,-999.
429,1.
1463,24.8479474223504
1464,4.4390336730227
1466,25.1704030826051
1467,4.4390336730227
2,1, 1, 1, 0, 2,10.00,15.00,Sunday
6,8.1
8,71.5
10,0.0
11,0.0
374,17.7887598200618
383,18.
396,12.
397,16.
398,0.0
412,17.7887598200618
420,11.1546402876651
425,-999.
429,1.
1463,24.3708189690422
1464,4.4390336730227
1466,24.6739203190235
1467,4.4390336730227
2,1, 1, 1, 0, 2,15.00,20.00,Sunday
6,8.13333333333333
8,71.6666666666667
10,0.0
11,0.0
374,17.7731635493987
383,18.
396,12.
397,16.
398,0.0
412,17.7731635493987
420,10.6185727682897
425,-999.
429,1.
1463,23.9168092531882
1464,4.4390336730227
1466,24.2044710697785
1467,4.4390336730227
2,1, 1, 1, 0, 2,20.00,25.00,Sunday
6,8.16666666666667
8,71.8333333333333
10,0.0
11,0.0
374,17.7574981273068
383,18.
396,12.
397,16.
398,0.0
412,17.7574981273068
420,11.2051533852073
425,-999.
429,1.
1463,23.4448831595803
1464,4.4390336730227
1466,23.7383647403084
1467,4.4390336730227
2,1, 1, 1, 0, 2,25.00,30.00,Sunday
6,8.2
8,72.
10,0.0
11,0.0
374,17.7253893753387
383,18.
396,12.
397,16.
398,0.0
412,17.7253893753387
420,11.7955993252778
425,-999.
429,1.
1463,22.9422015226253
1464,4.4390336730227
1466,23.2521994098661
1467,4.4390336730227
2,1, 1, 1, 0, 2,30.00,35.00,Sunday
6,8.23333333333333
8,72.1666666666667
10,0.0
11,0.0
374,17.6908249756247
383,18.
396,12.
397,16.
398,0.0
412,33.5917502437531
420,11.7503072111666
425,-999.
429,1.
1463,22.4373112729603
1464,4.4390336730227
1466,22.75174543341
1467,4.4390336730227
2,1, 1, 1, 0, 2,35.00,40.00,Sunday
6,8.26666666666667
8,72.3333333333333
10,0.0
11,0.0
374,17.6580588460429
383,18.
396,12.
397,16.
398,0.0
412,33.9194115395707
420,38.5097470972666
425,-999.
429,1.
1463,33.5917502437531
1464,4.4390336730227
1466,28.0912355418828
1467,4.4390336730227
2,1, 1, 1, 0, 2,40.00,45.00,Sunday
6,8.3
8,72.5
10,0.0
11,0.0
374,17.6556467993235
383,18.
396,12.
397,16.
398,0.0
412,33.943532006765
420,51.8284388287816
425,-999.
429,1.
1463,33.9194115395707
1464,4.4390336730227
1466,32.6454345108906
1467,4.4390336730227
2,1, 1, 1, 0, 2,45.00,50.00,Sunday
6,8.33333333333333
8,72.6666666666667
10,0.0
11,0.0
374,17.6935090598406
383,18.
396,12.
397,16.
398,0.0
412,33.5649094015942
420,43.7608260012595
425,-999.
429,1.
1463,33.5649094015942
1464,4.4390336730227
1466,33.4845287446844
1467,4.4390336730227
2,1, 1, 1, 0, 2,50.00,55.00,Sunday
6,8.36666666666667
8,72.8333333333333
10,0.0
11,0.0
374,17.7491285196727
383,18.
396,12.
397,16.
398,0.0
412,17.7491285196727
420,26.5630997625417
425,-999.
429,1.
1463,30.6955498367603
1464,4.4390336730227
1466,32.1252461712702
1467,4.4390336730227
2,1, 1, 1, 0, 2,55.00,60.00,Sunday
6,8.4
8,73.
10,0.0
11,0.0
374,17.825777071642
383,18.
396,12.
397,16.
398,0.0
412,17.825777071642
420,20.8744952015078
425,-999.
429,1.
1463,29.9704013262628
1464,4.4390336730227
1466,30.6061205106224
1467,4.4390336730227
2,1, 1, 1, 0, 3, 0.00, 5.00,Sunday
6,8.425
8,73.0833333333333
10,0.0
11,0.0
374,17.8570987260095
383,18.
396,12.
397,16.
398,0.0
412,17.8570987260095
420,20.0515375148693
425,-999.
429,1.
1463,29.1449956988611
1464,4.4390336730227
1466,29.6850696294158
1467,4.4390336730227
2,1, 1, 1, 0, 3, 5.00,10.00,Sunday
6,8.45
8,73.1666666666667
10,0.0
11,0.0
374,17.8556424647392
383,18.
396,12.
397,16.
398,0.0
412,17.8556424647392
420,19.165259599792
425,-999.
429,1.
1463,28.3183197407233
1464,4.4390336730227
1466,28.8397168871869
1467,4.4390336730227
2,1, 1, 1, 0, 3,10.00,15.00,Sunday
6,8.475
8,73.25
10,0.0
11,0.0
374,17.8421202738305
383,18.
396,12.
397,16.
398,0.0
412,17.8421202738305
420,18.072159750333
425,-999.
429,1.
1463,27.5401113656694
1464,4.4390336730227
1466,28.0335613926929
1467,4.4390336730227
2,1, 1, 1, 0, 3,15.00,20.00,Sunday
6,8.5
8,73.3333333333333
10,0.0
11,0.0
374,17.8231285817328
383,18.
396,12.
397,16.
398,0.0
412,17.8231285817328
420,16.9945145344647
425,-999.
429,1.
1463,26.8093061010418
1464,4.4390336730227
1466,27.2734683347816
1467,4.4390336730227
2,1, 1, 1, 0, 3,20.00,25.00,Sunday
6,8.525
8,73.4166666666667
10,0.0
11,0.0
374,17.8013639526387
383,18.
396,12.
397,16.
398,0.0
412,17.8013639526387
420,15.9833362730598
425,-999.
429,1.
1463,26.1224620575027
1464,4.4390336730227
1466,26.5587826854939
1467,4.4390336730227
2,1, 1, 1, 0, 3,25.00,30.00,Sunday
6,8.55
8,73.5
10,0.0
11,0.0
374,17.7782861606923
383,18.
396,12.
397,16.
398,0.0
412,17.7782861606923
420,15.1152618737312
425,-999.
429,1.
1463,25.4737626331183
1464,4.4390336730227
1466,25.885435041999
1467,4.4390336730227
2,1, 1, 1, 0, 3,30.00,35.00,Sunday
6,8.575
8,73.5833333333333
10,0.0
11,0.0
374,17.7546730188909
383,18.
396,12.
397,16.
398,0.0
412,17.7546730188909
420,14.2517802383982
425,-999.
429,1.
1463,24.8616802796862
1464,4.4390336730227
1466,25.2501111665613
1467,4.4390336730227
2,1, 1, 1, 0, 3,35.00,40.00,Sunday
6,8.6
8,73.6666666666667
10,0.0
11,0.0
374,17.7310113270453
383,18.
396,12.
397,16.
398,0.0
412,17.7310113270453
420,13.5867522246269
425,-999.
429,1.
1463,24.2797025701277
1464,4.4390336730227
1466,24.6484244364494
1467,4.4390336730227
2,1, 1, 1, 0, 3,40.00,45.00,Sunday
6,8.625
8,73.75
10,0.0
11,0.0
374,17.7223130064032
383,18.
396,12.
397,16.
398,0.0
412,17.7223130064032
420,12.7770032557406
425,-999.
429,1.
1463,23.7306871208817
1464,4.4390336730227
1466,24.0789877453743
1467,4.4390336730227
2,1, 1, 1, 0, 3,45.00,50.00,Sunday
6,8.65
8,73.8333333333333
10,0.0
11,0.0
374,17.7157664562673
383,18.
396,12.
397,16.
398,0.0
412,17.7157664562673
420,12.037025202024
425,-999.
429,1.
1463,23.2148314199784
1464,4.4390336730227
1466,23.5424684977183
1467,4.4390336730227
2,1, 1, 1, 0, 3,50.00,55.00,Sunday
6,8.675
8,73.9166666666667
10,0.0
11,0.0
374,17.7079483267022
383,18.
396,12.
397,16.
398,0.0
412,17.7079483267022
420,11.3467716616359
425,-999.
429,1.
1463,22.7287204901345
1464,4.4390336730227
1466,23.0373485413894
1467,4.4390336730227
2,1, 1, 1, 0, 3,55.00,60.00,Sunday
6,8.7
8,74.
10,0.0
11,0.0
374,17.698591853642
383,18.
396,12.
397,16.
398,0.0
412,33.5140814635802
420,10.70000117992
425,-999.
429,1.
1463,22.2706016319054
1464,4.4390336730227
1466,22.5614289707624
1467,4.4390336730227
2,1, 1, 1, 0, 4, 0.00, 5.00,Sunday
6,8.70833333333333
8,74.0833333333333
10,0.0
11,0.0
374,17.6877555694192
383,18.
396,12.
397,16.
398,0.0
412,33.622444305808
420,36.7830815090459
425,-999.
429,1.
1463,33.5140814635802
1464,4.4390336730227
1466,27.9643857384352
1467,4.4390336730227
2,1, 1, 1, 0, 4, 5.00,10.00,Sunday
6,8.71666666666667
8,74.1666666666667
10,0.0
11,0.0
374,17.7025488169388
383,18.
396,12.
397,16.
398,0.0
412,17.7025488169388
420,49.446025755829
425,-999.
429,1.
1463,33.622444305808
1464,4.4390336730227
1466,32.4479270869077
1467,4.4390336730227
2,1, 1, 1, 0, 4,10.00,15.00,Sunday
6,8.725
8,74.25
10,0.0
11,0.0
374,17.7540536529117
383,18.
396,12.
397,16.
398,0.0
412,17.7540536529117
420,25.8151557025783
425,-999.
429,1.
1463,29.3190153547194
1464,4.4390336730227
1466,31.2134036424997
1467,4.4390336730227
2,1, 1, 1, 0, 4,15.00,20.00,Sunday
6,8.73333333333333
8,74.3333333333333
10,0.0
11,0.0
374,17.803922564613
383,18.
396,12.
397,16.
398,0.0
412,17.803922564613
420,17.681680482102
425,-999.
429,1.
1463,28.9378192459599
1464,4.4390336730227
1466,29.525530152988
1467,4.4390336730227
2,1, 1, 1, 0, 4,20.00,25.00,Sunday
6,8.74166666666667
8,74.4166666666667
10,0.0
11,0.0
374,17.8486543774253
383,18.
396,12.
397,16.
398,0.0
412,17.8486543774253
420,16.9694393381204
425,-999.
429,1.
1463,28.2663805795282
1464,4.4390336730227
1466,28.7199608262647
1467,4.4390336730227
2,1, 1, 1, 0, 4,25.00,30.00,Sunday
6,8.75
8,74.5
10,0.0
11,0.0
374,17.8629557065702
383,18.
396,12.
397,16.
398,0.0
412,17.8629557065702
420,16.18327723226
425,-999.
429,1.
1463,27.5672307301688
1464,4.4390336730227
1466,28.0075532083768
1467,4.4390336730227
2,1, 1, 1, 0, 4,30.00,35.00,Sunday
6,8.75833333333333
8,74.5833333333333
10,0.0
11,0.0
374,17.8636946073009
383,18.
396,12.
397,16.
398,0.0
412,17.8636946073009
420,15.0929231157474
425,-999.
429,1.
1463,26.917189878989
1464,4.4390336730227
1466,27.3303393708667
1467,4.4390336730227
2,1, 1, 1, 0, 4,35.00,40.00,Sunday
6,8.76666666666667
8,74.6666666666667
10,0.0
11,0.0
374,17.8575253721351
383,18.
396,12.
397,16.
398,0.0
412,17.8575253721351
420,14.0400189095339
425,-999.
429,1.
1463,26.3140120974603
1464,4.4390336730227
1466,26.6982994710981
1467,4.4390336730227
2,1, 1, 1, 0, 4,40.00,45.00,Sunday
6,8.775
8,74.75
10,0.0
11,0.0
374,17.8467375507786
383,18.
396,12.
397,16.
398,0.0
412,17.8467375507786
420,13.0470402502108
425,-999.
429,1.
1463,25.7538360506181
1464,4.4390336730227
1466,26.1108463667153
1467,4.4390336730227
2,1, 1, 1, 0, 4,45.00,50.00,Sunday
6,8.78333333333333
8,74.8333333333333
10,0.0
11,0.0
374,17.8331893823117
383,18.
396,12.
397,16.
398,0.0
412,17.8331893823117
420,12.2161200586027
425,-999.
429,1.
1463,25.2303747815658
1464,4.4390336730227
1466,25.5635640847275
1467,4.4390336730227
2,1, 1, 1, 0, 4,50.00,55.00,Sunday
6,8.79166666666667
8,74.9166666666667
10,0.0
11,0.0
374,17.8182196244861
383,18.
396,12.
397,16.
398,0.0
412,17.8182196244861
420,11.4080417991937
425,-999.
429,1.
1463,24.7411765523962
1464,4.4390336730227
1466,25.0524655688445
1467,4.4390336730227
2,1, 1, 1, 0, 4,55.00,60.00,Sunday
6,8.8
8,75.
10,0.0
11,0.0
374,17.8024750056377
383,18.
396,12.
397,16.
398,0.0
412,17.8024750056377
420,10.6942673954883
425,-999.
429,1.
1463,24.2833706105337
1464,4.4390336730227
1466,24.5745791017216
1467,4.4390336730227
2,1, 1, 1, 0, 5, 0.00, 5.00,Sunday
6,8.8
8,75.0833333333333
10,0.0
11,0.0
374,17.7865054140491
383,18.
396,12.
397,16.
398,0.0
412,17.7865054140491
420,10.2443292133432
425,-999.
429,1.
1463,23.8463866175455
1464,4.4390336730227
1466,24.1231546269171
1467,4.4390336730227
2,1, 1, 1, 0, 5, 5.00,10.00,Sunday
6,8.8
8,75.1666666666667
10,0.0
11,0.0
374,17.7705455423319
383,18.
396,12.
397,16.
398,0.0
412,17.7705455423319
420,9.7053782062348
425,-999.
429,1.
1463,23.430794626993
1464,4.4390336730227
1466,23.6939765085984
1467,4.4390336730227
2,1, 1, 1, 0, 5,10.00,15.00,Sunday
6,8.8
8,75.25
10,0.0
11,0.0
374,17.7548694336608
383,18.
396,12.
397,16.
398,0.0
412,17.7548694336608
420,9.2076890452229
425,-999.
429,1.
1463,23.0374628818639
1464,4.4390336730227
1466,23.2867980344661
1467,4.4390336730227
2,1, 1, 1, 0, 5,15.00,20.00,Sunday
6,8.8
8,75.3333333333333
10,0.0
11,0.0
374,17.7395444338119
383,18.
396,12.
397,16.
398,0.0
412,17.7395444338119
420,8.74459126145948
425,-999.
429,1.
1463,22.6641223238819
1464,4.4390336730227
1466,22.900689972568
1467,4.4390336730227
2,1, 1, 1, 0, 5,20.00,25.00,Sunday
6,8.8
8,75.4166666666667
10,0.0
11,0.0
374,17.724654679447
383,18.
396,12.
397,16.
398,0.0
412,17.724654679447
420,9.43660569032505
425,-999.
429,1.
1463,22.2689209917637
1464,4.4390336730227
1466,22.513815400839
1467,4.4390336730227
2,1, 1, 1, 0, 5,25.00,30.00,Sunday
6,8.8
8,75.5
10,0.0
11,0.0
374,17.69629029944
383,18.
396,12.
397,16.
398,0.0
412,33.5370970055999
420,10.119023126658
425,-999.
429,1.
1463,21.8387237317018
1464,4.4390336730227
1466,22.1027557671733
1467,4.4390336730227
2,1, 1, 1, 0, 5,30.00,35.00,Sunday
6,8.8
8,75.5833333333333
10,0.0
11,0.0
374,17.6657817276258
383,18.
396,12.
397,16.
398,0.0
412,33.8421827237424
420,37.8626864514054
425,-999.
429,1.
1463,33.5370970055999
1464,4.4390336730227
1466,27.7550838768904
1467,4.4390336730227
2,1, 1, 1, 0, 5,35.00,40.00,Sunday
6,8.8
8,75.6666666666667
10,0.0
11,0.0
374,17.6639238741338
383,18.
396,12.
397,16.
398,0.0
412,33.8607612586616
420,51.8246825081793
425,-999.
429,1.
1463,33.8421827237424
1464,4.4390336730227
1466,32.5226331723318
1467,4.4390336730227
2,1, 1, 1, 0, 5,40.00,45.00,Sunday
6,8.8
8,75.75
10,0.0
11,0.0
374,17.7028346984091
383,18.
396,12.
397,16.
398,0.0
412,17.7028346984091
420,27.5087760706347
425,-999.
429,1.
1463,29.2769316500267
1464,4.4390336730227
1466,31.2706522637939
1467,4.4390336730227
2,1, 1, 1, 0, 5,45.00,50.00,Sunday
6,8.8
8,75.8333333333333
10,0.0
11,0.0
374,17.7508212484887
383,18.
396,12.
397,16.
398,0.0
412,17.7508212484887
420,18.3912727306918
425,-999.
429,1.
1463,28.8826842819628
1464,4.4390336730227
1466,29.4989470678333
1467,4.4390336730227
2,1, 1, 1, 0, 5,50.00,55.00,Sunday
6,8.8
8,75.9166666666667
10,0.0
11,0.0
374,17.7840039532744
383,18.
396,12.
397,16.
398,0.0
412,17.7840039532744
420,18.2339841401502
425,-999.
429,1.
1463,28.1656187406985
1464,4.4390336730227
1466,28.6477228671536
1467,4.4390336730227
2,1, 1, 1, 0, 5,55.00,60.00,Sunday
6,8.8
8,76.
10,0.0
11,0.0
374,17.7919015299522
383,18.
396,12.
397,16.
398,0.0
412,17.7919015299522
420,17.5802781403895
425,-999.
429,1.
1463,27.4041821640488
1464,4.4390336730227
1466,27.8813330479599
1467,4.4390336730227
2,1, 1, 1, 0, 6, 0.00, 5.00,Sunday
6,8.79166666666667
8,76.
10,0.0
11,0.0
374,17.7874763386153
383,18.
396,12.
397,16.
398,0.0
412,17.7874763386153
420,16.5533534174264
425,-999.
429,1.
1463,26.6911487272363
1464,4.4390336730227
1466,27.1431553721975
1467,4.4390336730227
2,1, 1, 1, 0, 6, 5.00,10.00,Sunday
6,8.78333333333333
8,76.
10,0.0
11,0.0
374,17.7757531757274
383,18.
396,12.
397,16.
398,0.0
412,17.7757531757274
420,15.5864455956543
425,-999.
429,1.
1463,26.0215973706985
1464,4.4390336730227
1466,26.446837981573
1467,4.4390336730227
2,1, 1, 1, 0, 6,10.00,15.00,Sunday
6,8.775
8,76.
10,0.0
11,0.0
374,17.7596267271175
383,18.
396,12.
397,16.
398,0.0
412,17.7596267271175
420,14.7570311480747
425,-999.
429,1.
1463,25.3884207785132
1464,4.4390336730227
1466,25.7901131540008
1467,4.4390336730227
2,1, 1, 1, 0, 6,15.00,20.00,Sunday
6,8.76666666666667
8,76.
10,0.0
11,0.0
374,17.7410544276117
383,18.
396,12.
397,16.
398,0.0
412,17.7410544276117
420,13.93427223886
425,-999.
429,1.
1463,24.7901498912545
1464,4.4390336730227
1466,25.1696764821102
1467,4.4390336730227
2,1, 1, 1, 0, 6,20.00,25.00,Sunday
6,8.75833333333333
8,76.
10,0.0
11,0.0
374,17.721135477398
383,18.
396,12.
397,16.
398,0.0
412,17.721135477398
420,13.4130800317037
425,-999.
429,1.
1463,24.2164940618163
1464,4.4390336730227
1466,24.5792671058385
1467,4.4390336730227
2,1, 1, 1, 0, 6,25.00,30.00,Sunday
6,8.75
8,76.
10,0.0
11,0.0
374,17.7004187750216
383,18.
396,12.
397,16.
398,0.0
412,17.7004187750216
420,12.8183485322176
425,-999.
429,1.
1463,23.6665369023473
1464,4.4390336730227
1466,24.0141062192114
1467,4.4390336730227
2,1, 1, 1, 0, 6,30.00,35.00,Sunday
6,8.74166666666667
8,76.
10,0.0
11,0.0
374,17.6794467490516
383,18.
396,12.
397,16.
398,0.0
412,33.7055325094839
420,12.2754447344335
425,-999.
429,1.
1463,23.1408042175774
1464,4.4390336730227
1466,23.4732204313633
1467,4.4390336730227
2,1, 1, 1, 0, 6,35.00,40.00,Sunday
6,8.73333333333333
8,76.
10,0.0
11,0.0
374,17.6584581493008
383,18.
396,12.
397,16.
398,0.0
412,33.9154185069921
420,37.8221289796933
425,-999.
429,1.
1463,33.7055325094839
1464,4.4390336730227
1466,28.5028046629404
1467,4.4390336730227
2,1, 1, 1, 0, 6,40.00,45.00,Sunday
6,8.725
8,76.
10,0.0
11,0.0
374,17.6781114436839
383,18.
396,12.
397,16.
398,0.0
412,33.7188855631608
420,52.5322340180395
425,-999.
429,1.
1463,33.7188855631608
1464,4.4390336730227
1466,32.661812227723
1467,4.4390336730227
2,1, 1, 1, 0, 6,45.00,50.00,Sunday
6,8.71666666666667
8,76.
10,0.0
11,0.0
374,17.7425100238627
383,18.
396,12.
397,16.
398,0.0
412,17.7425100238627
420,25.9868125765815
425,-999.
429,1.
1463,29.6128048880887
1464,4.4390336730227
1466,31.4352384061475
1467,4.4390336730227
2,1, 1, 1, 0, 6,50.00,55.00,Sunday
6,8.70833333333333
8,76.
10,0.0
11,0.0
374,17.8336938536668
383,18.
396,12.
397,16.
398,0.0
412,17.8336938536668
420,18.0267396811332
425,-999.
429,1.
1463,29.1885815094577
1464,4.4390336730227
1466,29.7804536971589
1467,4.4390336730227
2,1, 1, 1, 0, 6,55.00,60.00,Sunday
6,8.7
8,76.
10,0.0
11,0.0
374,17.8779811824742
383,18.
396,12.
397,16.
398,0.0
412,17.8779811824742
420,17.6209273341643
425,-999.
429,1.
1463,28.4884665858657
1464,4.4390336730227
1466,28.9571911186121
1467,4.4390336730227
2,1, 1, 1, 0, 7, 0.00, 5.00,Sunday
6,8.675
8,76.0833333333333
10,0.0
11,0.0
374,17.8859851269836
383,18.
396,12.
397,16.
398,0.0
412,17.8859851269836
420,16.7931725709408
425,-999.
429,1.
1463,27.7614291769191
1464,4.4390336730227
1466,28.218719957747
1467,4.4390336730227
2,1, 1, 1, 0, 7, 5.00,10.00,Sunday
6,8.65
8,76.1666666666667
10,0.0
11,0.0
374,17.8806796467467
383,18.
396,12.
397,16.
398,0.0
412,17.8806796467467
420,15.6661647063706
425,-999.
429,1.
1463,27.086682535557
1464,4.4390336730227
1466,27.5155814793813
1467,4.4390336730227
2,1, 1, 1, 0, 7,10.00,15.00,Sunday
6,8.625
8,76.25
10,0.0
11,0.0
374,17.8690315283991
383,18.
396,12.
397,16.
398,0.0
412,17.8690315283991
420,14.5831498085124
425,-999.
429,1.
1463,26.460021273144
1464,4.4390336730227
1466,26.8592023112047
1467,4.4390336730227
2,1, 1, 1, 0, 7,15.00,20.00,Sunday
6,8.6
8,76.3333333333333
10,0.0
11,0.0
374,17.8537322346908
383,18.
396,12.
397,16.
398,0.0
412,17.8537322346908
420,13.6102933407732
425,-999.
429,1.
1463,25.8758243606624
1464,4.4390336730227
1466,26.2478236160641
1467,4.4390336730227
2,1, 1, 1, 0, 7,20.00,25.00,Sunday
6,8.575
8,76.4166666666667
10,0.0
11,0.0
374,17.8365964122571
383,18.
396,12.
397,16.
398,0.0
412,17.8365964122571
420,12.7436248028304
425,-999.
429,1.
1463,25.3292527766923
1464,4.4390336730227
1466,25.6769960587618
1467,4.4390336730227
2,1, 1, 1, 0, 7,25.00,30.00,Sunday
6,8.55
8,76.5
10,0.0
11,0.0
374,17.8184696613523
383,18.
396,12.
397,16.
398,0.0
412,17.8184696613523
420,11.9057523185682
425,-999.
429,1.
1463,24.8185525175701
1464,4.4390336730227
1466,25.1435054597925
1467,4.4390336730227
2,1, 1, 1, 0, 7,30.00,35.00,Sunday
6,8.525
8,76.5833333333333
10,0.0
11,0.0
374,17.7998270314301
383,18.
396,12.
397,16.
398,0.0
412,17.7998270314301
420,11.2437118832979
425,-999.
429,1.
1463,24.3375413988119
1464,4.4390336730227
1466,24.6430836718363
1467,4.4390336730227
2,1, 1, 1, 0, 7,35.00,40.00,Sunday
6,8.5
8,76.6666666666667
10,0.0
11,0.0
374,17.7812086838381
383,18.
396,12.
397,16.
398,0.0
412,17.7812086838381
420,10.7104551115602
425,-999.
429,1.
1463,23.8796091421976
1464,4.4390336730227
1466,24.1697203935504
1467,4.4390336730227
2,1, 1, 1, 0, 7,40.00,45.00,Sunday
6,8.475
8,76.75
10,0.0
11,0.0
374,17.762873061339
383,18.
396,12.
397,16.
398,0.0
412,17.762873061339
420,10.1490299151572
425,-999.
429,1.
1463,23.4451346595253
1464,4.4390336730227
1466,23.720429359419
1467,4.4390336730227
2,1, 1, 1, 0, 7,45.00,50.00,Sunday
6,8.45
8,76.8333333333333
10,0.0
11,0.0
374,17.7450381710936
383,18.
396,12.
397,16.
398,0.0
412,17.7450381710936
420,9.62486261441824
425,-999.
429,1.
1463,23.0337023081418
1464,4.4390336730227
1466,23.2945118446282
1467,4.4390336730227
2,1, 1, 1, 0, 7,50.00,55.00,Sunday
6,8.425
8,76.9166666666667
10,0.0
11,0.0
374,17.7277185568664
383,18.
396,12.
397,16.
398,0.0
412,17.7277185568664
420,9.13533926416064
425,-999.
429,1.
1463,22.6434414676075
1464,4.4390336730227
1466,22.8907658397094
1467,4.4390336730227
2,1, 1, 1, 0, 7,55.00,60.00,Sunday
6,8.4
8,77.
10,3.
11,0.0
374,17.7109654726471
383,18.
396,12.
397,16.
398,0.0
412,17.7109654726471
420,8.67475636166439
425,-999.
429,1.
1463,22.2730986989851
1464,4.4390336730227
1466,22.5077650367608
1467,4.4390336730227
2,1, 1, 1, 0, 8, 0.00, 5.00,Sunday
6,8.38333333333333
8,76.9166666666667
10,3.5
11,0.0
374,17.6949986177277
383,18.
396,12.
397,16.
398,0.0
412,33.5500138227228
420,8.24320138635185
425,-999.
429,1.
1463,21.9214474404744
1464,4.4390336730227
1466,22.14423456563
1467,4.4390336730227
2,1, 1, 1, 0, 8, 5.00,10.00,Sunday
6,8.36666666666667
8,76.8333333333333
10,4.
11,0.0
374,17.6797021052149
383,18.
396,12.
397,16.
398,0.0
412,33.7029789478509
420,34.9802032492237
425,-999.
429,1.
1463,33.5500138227228
1464,4.4390336730227
1466,27.794494192294
1467,4.4390336730227
2,1, 1, 1, 0, 8,10.00,15.00,Sunday
6,8.35
8,76.75
10,4.5
11,0.0
374,17.691632967673
383,18.
396,12.
397,16.
398,0.0
412,33.5836703232695
420,48.0156653230908
425,-999.
429,1.
1463,33.7029789478509
1464,4.4390336730227
1466,32.4646583258486
1467,4.4390336730227
2,1, 1, 1, 0, 8,15.00,20.00,Sunday
6,8.33333333333333
8,76.6666666666667
10,5.
11,0.0
374,17.7425787411267
383,18.
396,12.
397,16.
398,0.0
412,17.7425787411267
420,24.4347322142409
425,-999.
429,1.
1463,29.4520126041842
1464,4.4390336730227
1466,31.3023361899514
1467,4.4390336730227
2,1, 1, 1, 0, 8,20.00,25.00,Sunday
6,8.31666666666667
8,76.5833333333333
10,5.5
11,0.0
374,17.7979244171768
383,18.
396,12.
397,16.
398,0.0
412,17.7979244171768
420,15.794824980787
425,-999.
429,1.
1463,29.1590182962929
1464,4.4390336730227
1466,29.698850239227
1467,4.4390336730227
2,1, 1, 1, 0, 8,25.00,30.00,Sunday
6,8.3
8,76.5
10,6.
11,0.0
374,17.8416156306079
383,18.
396,12.
397,16.
398,0.0
412,17.8416156306079
420,15.704063310111
425,-999.
429,1.
1463,28.5481310373836
1464,4.4390336730227
1466,28.9618407572444
1467,4.4390336730227
2,1, 1, 1, 0, 8,30.00,35.00,Sunday
6,8.28333333333333
8,76.4166666666667
10,8.33333333333334
11,0.0
374,17.8581560124078
383,18.
396,12.
397,16.
398,0.0
412,17.8581560124078
420,15.1476435138771
425,-999.
429,1.
1463,27.8922120251141
1464,4.4390336730227
1466,28.3029206067682
1467,4.4390336730227
2,1, 1, 1, 0, 8,35.00,40.00,Sunday
6,8.26666666666667
8,76.3333333333333
10,10.6666666666667
11,0.0
374,17.861062450529
383,18.
396,12.
397,16.
398,0.0
412,17.861062450529
420,14.2187208353766
425,-999.
429,1.
1463,27.2801172416585
1464,4.4390336730227
1466,27.6683597354507
1467,4.4390336730227
2,1, 1, 1, 0, 8,40.00,45.00,Sunday
6,8.25
8,76.25
10,13.
11,0.0
374,17.8562075025142
383,18.
396,12.
397,16.
398,0.0
412,17.8562075025142
420,13.3110763373151
425,-999.
429,1.
1463,26.7086943456327
1464,4.4390336730227
1466,27.0721132801518
1467,4.4390336730227
2,1, 1, 1, 0, 8,45.00,50.00,Sunday
6,8.23333333333333
8,76.1666666666667
10,15.3333333333333
11,0.0
374,17.8466171466261
383,18.
396,12.
397,16.
398,0.0
412,17.8466171466261
420,12.4492726048358
425,-999.
429,1.
1463,26.1745807301603
1464,4.4390336730227
1466,26.5143774577974
1467,4.4390336730227
2,1, 1, 1, 0, 8,50.00,55.00,Sunday
6,8.21666666666667
8,76.0833333333333
10,17.6666666666667
11,0.0
374,17.8343053185969
383,18.
396,12.
397,16.
398,0.0
412,17.8343053185969
420,11.6244738016354
425,-999.
429,1.
1463,25.6760995590557
1464,4.4390336730227
1466,25.9933530591746
1467,4.4390336730227
2,1, 1, 1, 0, 8,55.00,60.00,Sunday
6,8.2
8,76.
10,20.
11,0.0
374,17.8204592687504
383,18.
396,12.
397,16.
398,0.0
412,17.8204592687504
420,10.8580500903194
425,-999.
429,1.
1463,25.2109266312417
1464,4.4390336730227
1466,25.5070140916267
1467,4.4390336730227
2,1, 1, 1, 0, 9, 0.00, 5.00,Sunday
6,8.20833333333333
8,75.9166666666667
10,22.3333333333333
11,0.0
374,17.8057067798935
383,18.
396,12.
397,16.
398,0.0
412,17.8057067798935
420,10.2205134330544
425,-999.
429,1.
1463,24.7738947301734
1464,4.4390336730227
1466,25.0516716836908
1467,4.4390336730227
2,1, 1, 1, 0, 9, 5.00,10.00,Sunday
6,8.21666666666667
8,75.8333333333333
10,24.6666666666667
11,0.0
374,17.8073469805886
383,18.
396,12.
397,16.
398,0.0
412,17.8073469805886
420,9.590995944882
425,-999.
429,1.
1463,24.3634767649393
1464,4.4390336730227
1466,24.6242814690904
1467,4.4390336730227
2,1, 1, 1, 0, 9,10.00,15.00,Sunday
6,8.225
8,75.75
10,27.
11,0.0
374,17.8110692257927
383,18.
396,12.
397,16.
398,0.0
412,17.8110692257927
420,9.18315569191718
425,-999.
429,1.
1463,23.9722126350851
1464,4.4390336730227
1466,24.2200364869926
1467,4.4390336730227
2,1, 1, 1, 0, 9,15.00,20.00,Sunday
6,8.23333333333333
8,75.6666666666667
10,29.3333333333333
11,0.0
374,17.812489673853
383,18.
396,12.
397,16.
398,0.0
412,17.812489673853
420,8.7352215599786
425,-999.
429,1.
1463,23.5989318400279
1464,4.4390336730227
1466,23.8351645517421
1467,4.4390336730227
2,1, 1, 1, 0, 9,20.00,25.00,Sunday
6,8.24166666666667
8,75.5833333333333
10,31.6666666666667
11,0.0
374,17.8111353809544
383,18.
396,12.
397,16.
398,0.0
412,17.8111353809544
420,8.32984862103585
425,-999.
429,1.
1463,23.2436944678978
1464,4.4390336730227
1466,23.4685866446015
1467,4.4390336730227
2,1, 1, 1, 0, 9,25.00,30.00,Sunday
6,8.25
8,75.5
10,34.
11,0.0
374,17.8073639799068
383,18.
396,12.
397,16.
398,0.0
412,17.8073639799068
420,7.94572286525977
425,-999.
429,1.
1463,22.9049570310985
1464,4.4390336730227
1466,23.1193291833711
1467,4.4390336730227
2,1, 1, 1, 0, 9,30.00,35.00,Sunday
6,8.25833333333333
8,75.4166666666667
10,36.6666666666667
11,0.0
374,17.8020224332973
383,18.
396,12.
397,16.
398,0.0
412,17.8020224332973
420,7.58326728712
425,-999.
429,1.
1463,22.581919457534
1464,4.4390336730227
1466,22.7863363313081
1467,4.4390336730227
2,1, 1, 1, 0, 9,35.00,40.00,Sunday
6,8.26666666666667
8,75.3333333333333
10,39.3333333333333
11,0.0
374,17.7958120085606